10
energy: -25.957021227747 gnorm: 0.000714764397 xtb: 6.6.1 (8d0f1dd)
C     -5.60420    2.41820    0.26470
C     -4.17520    2.08390   -0.05940
Br    -3.73870    1.81260   -1.98830
H     -3.69130    3.54070    1.11190
O     -5.97810    3.53750   -0.36940
O     -3.33740    3.06280    0.34670
Br    -3.66070    0.36140    0.93350
Br    -6.77770    0.77720   -0.64590
Li    -6.05890    0.97830    1.65780
H     -5.67290    3.58330   -1.29950
