5
energy: -7.473371354633 gnorm: 0.000456611409 xtb: 6.5.1 (conda-forge)
C     -2.30880    1.49000   -0.12620
I     -0.70960    2.26310    1.07420
Li    -3.51397    3.29092    0.21211
H     -2.04260    1.33603   -1.15106
H     -2.72116    0.52878    0.09944
