10
energy: -18.295352407944 gnorm: 0.000451924721 xtb: 6.6.1 (8d0f1dd)
C     -7.58860    3.93280   -0.54410
N     -7.83390    2.59230   -0.03270
C     -6.41560    4.56550   -0.36680
O     -6.02000    5.67780   -0.69530
H     -8.42480    4.42530   -1.00280
Li    -6.30240    2.37680    0.74090
O     -5.37950    3.73890    0.36440
H     -4.63130    4.34880    0.34390
Br    -8.77857    2.28748   -0.30762
H     -7.13634    1.94286   -0.42325
