6
energy: -18.753273839173 gnorm: 0.000699519336 xtb: 6.5.1 (conda-forge)
O     -1.10420    2.67820    0.00000
O     -2.60540    4.33700    0.00040
O     -3.34820    2.32390   -0.00060
C     -2.23380    3.20210    0.00010
Br    -3.15800    0.56940    0.00010
Li    -0.64150    1.12010   -0.00000
