5
energy: -15.411401859620 gnorm: 0.000331699670 xtb: 6.6.1 (8d0f1dd)
N     -6.45970    2.21300   -0.78660
O     -6.89850    1.11720   -0.70840
Li    -6.60520    0.53880    1.14710
Br    -6.43620    3.15380    0.99840
Br    -5.64689    0.36676   -1.79372
