6
energy: -16.795693297728 gnorm: 0.000211578164 xtb: 6.5.1 (conda-forge)
C     -0.63310    0.95700    0.12100
N     -1.74350    1.26030    0.04150
Br    -2.94924    1.41062    0.11746
S      0.97020    0.57580    0.22320
Li    -0.14711    2.06375   -1.05063
Br     2.45454    0.18011    0.00261
