12
energy: -37.465978643934 gnorm: 0.000609881053 xtb: 6.6.1 (8d0f1dd)
C     -4.64860    2.58690   -0.63000
C     -3.74370    3.39690    0.18000
O     -2.57150    2.71340    0.31040
Br    -2.48260    0.05360    1.04230
Br    -1.24050    1.27710   -1.61020
C     -4.02080    1.43510   -0.93920
Li    -4.51320    4.78620    2.07340
Br    -6.32980    3.17900   -1.11000
C     -2.67950    1.47430   -0.29410
Br    -4.59420   -0.06710    0.08430
Br    -4.79070    0.88740   -2.23080
O     -3.82340    4.57540    0.47470
