5
energy: -8.140217301994 gnorm: 0.000980486971 xtb: 6.6.1 (8d0f1dd)
P     -1.91720    1.61060   -0.22240
O     -2.40100    2.97740   -0.13390
Br    -1.26620    1.13640    0.90910
Br    -0.99970    1.37380   -1.23550
Li    -2.89280    0.65060   -0.44590
