6
energy: -19.252605348880 gnorm: 0.000611054886 xtb: 6.5.1 (conda-forge)
P     -2.25200    3.36250    0.00040
O     -0.79714    2.48367   -0.02974
O     -3.33785    4.10385   -0.00163
Li    -4.44683    4.66842    0.12065
Br    -2.98883    2.16845   -0.10213
Br    -1.16629    4.25558   -0.04980
