6
energy: -7.953530856689 gnorm: 0.000588407031 xtb: 6.6.1 (8d0f1dd)
C     -3.43660    3.21930   -0.12570
O     -2.12600    3.11550    0.60450
H     -3.69750    2.19730   -0.43880
Li    -3.40970    3.91210    1.64790
H     -3.22730    3.76150   -1.06060
H     -1.48640    2.69570    0.01740
