6
energy: -14.369738241963 gnorm: 0.000304686888 xtb: 6.5.1 (conda-forge)
O      0.75140    0.95680    0.00000
Li     2.29420    1.78750   -0.00000
O     -1.27220    1.89280   -0.00000
S      0.71010    3.52910   -0.00000
H     -1.52760    0.95660   -0.00000
C      0.04950    1.99230    0.00000