4
energy: -9.718341829627 gnorm: 0.000346245104 xtb: 6.6.1 (8d0f1dd)
C     -3.94470    3.63620   -0.32670
S     -3.32800    4.98170    0.01530
Li    -3.95960    1.56420   -0.36470
Br    -2.60847    3.25479   -0.68147
