8
energy: -23.739527235079 gnorm: 0.000893066551 xtb: 6.6.1 (8d0f1dd)
N     -7.78300    2.24460    0.26380
C     -6.63800    2.82620    0.08040
Br    -7.92800    0.40260    0.48320
Li    -8.79770    3.83870    0.50470
N     -5.44220    2.17600   -0.08020
Br    -3.89320    3.21890   -0.07880
S     -6.63250    4.52150    0.16420
Br    -5.32690    0.79350   -1.35580
