65
 energy: -97.344829833075 gnorm: 0.000990579915 xtb: 6.3.0 (7ac954c)
H          -0.38687596509655    -1.79142134698556     0.13507435824937
Ru          0.13385375547557    -0.35612308939590     0.11367617569090
P          -0.15375774318702    -0.21059820212915     2.39067138592099
P          -0.17290944923386    -0.26654047958562    -2.16322247693906
C          -1.83858819814768     0.55428599708554     2.53542251383924
C          -1.84918254625985     0.51538140189527    -2.31006500484787
H          -1.70842034476960     1.64081989449556     2.46769171062833
H          -1.70731877262904     1.60121388081322    -2.25714269001310
H          -2.32178450224190     0.29799969575187     3.48051518772533
H          -2.34011348235075     0.25172803880498    -3.24915901576165
C          -2.65889495436952     0.06917466629695     1.34318433329175
C          -2.66656987379706     0.05406169198129    -1.10639250371837
H          -3.63493428245858     0.57757621010941     1.32179658829010
H          -3.63963531284348     0.56824508991754    -1.08816094565117
H          -2.82280999975273    -1.01305553160757     1.41368436094178
H          -2.83694672090428    -1.02823463600277    -1.15907916909400
N          -1.91027461730926     0.34370967874889     0.11431324363258
H          -1.69073950574212     1.34920981569056     0.10707219563643
C           1.90443285576279    -0.82439161420694     0.11018130204436
O           3.04430275940024    -1.05197158752481     0.10597658219492
C           0.89609380598751     0.72238292647340    -3.25742061777394
C           2.72262102475951     2.04539831576461    -4.88045913164460
C           0.47028833305191     1.74519352009391    -4.09553458424837
C           2.24325981560567     0.36612411784608    -3.24272649093454
C           3.15291003198045     1.02320718321936    -4.04801020780888
C           1.38521305988402     2.40238823570403    -4.90163969712966
H          -0.56849990777435     2.03839706196957    -4.12615626002229
H           2.56511794701640    -0.43076787206056    -2.58036268517712
H           4.19589162242028     0.74229770522023    -4.02521048215421
H           1.05006173266843     3.19921291162567    -5.54945570406830
H           3.43131290428712     2.56385115850983    -5.50891125683830
C          -0.30673082683804    -1.76246775591283    -3.19874309823395
C          -0.45355624874733    -4.03719617925460    -4.77988499072768
C          -0.72794308196582    -1.66750491643509    -4.52271537212579
C           0.06158205456739    -2.99728909427870    -2.68038517708591
C          -0.01429822580693    -4.13239807443762    -3.46975459470054
C          -0.80615943548039    -2.80342963664399    -5.30631237868706
H          -0.98204792820639    -0.70259965836297    -4.93973014459741
H           0.40217888253761    -3.05005773153809    -1.65356359276255
H           0.27089577930011    -5.09042375051326    -3.06143681554409
H          -1.13712244467913    -2.72727651286349    -6.33140149604737
H          -0.51530801108558    -4.92245498503300    -5.39487457185382
C           0.90834224219669     0.81929794530660     3.45401709436444
C           2.72183649376503     2.20628411075480     5.03826906074106
C           2.26533013966312     0.50534896212402     3.41614884367137
C           0.46616190435552     1.83182734057392     4.29640794358022
C           1.37435830844867     2.52080518553263     5.08316897357747
C           3.16854104498364     1.19461458202729     4.20175807610274
H           2.60044986611471    -0.28377029951775     2.75120560894349
H          -0.58057357745847     2.09243274102351     4.34545706765493
H           1.02591682939198     3.30895529795464     5.73456331397060
H           4.21928468482696     0.94658807308066     4.16051664998608
H           3.42530485932720     2.74936853853993     5.65159107435990
C          -0.25316796170926    -1.68440200706169     3.46107058090633
C          -0.34025394648937    -3.92701094216252     5.09170808708554
C           0.14510609336888    -2.92075536571957     2.96891302231670
C          -0.67373865334779    -1.57099330203493     4.78368396980664
C          -0.72220581519036    -2.69115164001352     5.59201232724277
C           0.09894451393856    -4.03981966531367     3.78292918281683
H           0.48505454331518    -2.98732228950163     1.94255732337474
H          -0.95119393099264    -0.60415718808121     5.18061073183114
H          -1.05289892420066    -2.60077375674425     6.61602416613868
H           0.40719416687726    -4.99910308311765     3.39481345141880
H          -0.37909626086233    -4.80000952496598     5.72580330741682
Cl          0.62447645781622     2.04540038680453     0.08204154038869
