8
energy: -11.394336739436 gnorm: 0.000443493312 xtb: 6.6.1 (8d0f1dd)
O     -3.22280   -1.65510   -0.92820
C     -2.80530   -0.74980    0.06690
C     -3.47050    0.61680   -0.06210
H     -3.06380    1.30010    0.67800
H     -3.29380    1.02470   -1.05410
H     -4.54530    0.53470    0.09400
H     -3.00040   -1.16570    1.06690
H     -1.72470   -0.65890   -0.06260
