5
energy: -11.394336739436 gnorm: 0.000443493312 xtb: 6.6.1 (8d0f1dd)
O     -3.22280   -1.65510   -0.92820
C     -2.80530   -0.74980    0.06690
H     -1.75757   -0.87393    0.24512
H     -2.99545    0.25137   -0.25928
H     -3.34573   -0.93915    0.97077
