38
	Energy:      55.7933429
C          0.61449        2.79084       -0.16788
C         -0.93675        0.55912       -0.62651
C          0.46521        0.44171       -0.56944
C          1.25930        1.55912       -0.28517
C         -0.77645        2.95795       -0.21658
C         -1.54161        1.81426       -0.45795
H          0.91788       -0.53695       -0.68996
H         -2.62943        1.86883       -0.47735
C          2.75997        1.48291        0.02094
C         -1.34428        4.33102        0.14648
C         -1.79710       -0.66082       -0.79830
H         -1.20712       -1.58114       -0.74383
H         -2.31104       -0.63456       -1.76347
H         -2.54179       -0.70556        0.00499
C         -2.88228        4.40863        0.07799
H         -3.25098        4.19445       -0.93152
H         -3.23741        5.40957        0.35121
H         -3.35365        3.70133        0.76996
C         -0.77527        5.41497       -0.79314
H          0.31874        5.46853       -0.74866
H         -1.15590        6.40743       -0.52379
H         -1.05357        5.22198       -1.83566
C         -0.92081        4.65548        1.59810
H         -1.25749        3.87396        2.29039
H         -1.34349        5.60791        1.93508
H          0.16885        4.73180        1.69906
C          3.15050        2.57462        1.05049
H          3.00125        3.58568        0.65192
H          4.20684        2.50064        1.33170
H          2.55353        2.48536        1.96643
C          3.56302        1.72759       -1.26895
H          3.33091        2.70406       -1.71012
H          3.34689        0.96661       -2.02774
H          4.64098        1.70231       -1.06948
C          3.16739        0.11768        0.62328
H          2.37386       -0.31608        1.24257
H          4.05232        0.20779        1.26379
H          3.41424       -0.60959       -0.15886
