47
	Energy:      69.2624973
C          0.52001        2.59071        0.21717
C         -0.95229        0.32377       -0.47679
C          0.44551        0.25771       -0.28127
C          1.20366        1.38639        0.06368
C         -0.86572        2.71964        0.08369
C         -1.58828        1.56280       -0.24291
H          0.95880       -0.68673       -0.42407
H         -2.66790        1.62753       -0.33940
C          2.73007        1.37486        0.18891
C         -1.47724        4.11119        0.27241
C         -1.74747       -0.90779       -0.96659
C         -3.00977        4.15099        0.10915
H         -3.31673        3.82812       -0.89245
H         -3.39386        5.16834        0.25186
H         -3.51019        3.50888        0.84266
C         -0.87357        5.08079       -0.76944
H          0.21482        5.16863       -0.66995
H         -1.28841        6.08941       -0.65856
H         -1.08293        4.74371       -1.79170
C         -1.13860        4.62870        1.68724
H         -1.51731        3.94717        2.45799
H         -1.58079        5.61562        1.86495
H         -0.05733        4.72890        1.83979
C          3.22312        2.48711        1.14527
H          2.98159        3.48867        0.76933
H          4.31145        2.44990        1.27009
H          2.76991        2.38532        2.13856
C          3.33431        1.63006       -1.20611
H          3.00996        2.59522       -1.61381
H          3.03319        0.85630       -1.92213
H          4.42963        1.63922       -1.16725
C          3.26994        0.03502        0.72863
H          2.77882       -0.24219        1.66834
H          4.34802        0.09296        0.92022
H          3.12303       -0.78442        0.01647
C         -2.94190       -0.50023       -1.86284
H         -3.73018        0.00649       -1.29526
H         -3.41136       -1.37670       -2.32483
H         -2.62150        0.16900       -2.66981
C         -2.29019       -1.69644        0.23989
H         -2.99744       -1.10034        0.82761
H         -1.48409       -2.01128        0.91238
H         -2.81682       -2.60103       -0.08951
C         -0.87450       -1.86322       -1.81699
H         -0.35521       -1.32141       -2.61625
H         -1.48038       -2.64604       -2.28808
H         -0.12183       -2.38050       -1.21127
